TITLE = Cables to test STAP90
VARIABLES = "X", "Y", "Z", "UX", "UY", "UZ", "SXX", "SYY", "SZZ", "SXY", "SXZ", "SYZ"
ZONE T="P_Initial", F=FEPOINT, N=16, E=7, ET=BRICK
0 0 0 0 0 0 0 0 0 0 0 0 
6 0 0 0 0 0 0 0 0 0 0 0 
6 8 0 0 0 0 0 0 0 0 0 0 
0 8 0 0 0 0 0 0 0 0 0 0 
0 0 8 0 0 0 0 0 0 0 0 0 
6 0 8 0 0 0 0 0 0 0 0 0 
6 8 8 0 0 0 0 0 0 0 0 0 
0 8 8 0 0 0 0 0 0 0 0 0 
2 2 2 0 0 0 0 0 0 0 0 0 
4 3 3 0 0 0 0 0 0 0 0 0 
4 5 3 0 0 0 0 0 0 0 0 0 
2 6 2 0 0 0 0 0 0 0 0 0 
2 2 6 0 0 0 0 0 0 0 0 0 
4 3 5 0 0 0 0 0 0 0 0 0 
4 5 5 0 0 0 0 0 0 0 0 0 
2 6 6 0 0 0 0 0 0 0 0 0 
1 2 3 4 9 10 11 12
2 6 7 3 10 14 15 11
6 5 8 7 14 13 16 15
5 1 4 8 13 9 12 16
9 10 11 12 13 14 15 16
5 6 2 1 13 14 10 9
7 8 4 3 15 16 12 11
ZONE T="P_lcase_0_initphase", F=FEPOINT, N=16, E=7, ET=BRICK, D=(1,2,3,FECONNECT)
0 0 0 6.25 -2.32559e-015 1.00889e-015 -5.07999e-015 -3.57266e-015 6.54099e-016 
0.375 0 0 6.25 -6.59385e-016 2.68839e-015 -4.00736e-015 -3.60678e-015 1.20458e-015 
0.375 -0.15 5.95317e-016 6.25 -1.88985e-016 1.23989e-015 -2.72265e-015 -1.8761e-015 3.66749e-016 
-1.86967e-015 -0.15 -8.33232e-016 6.25 -1.85519e-015 -4.39608e-016 -3.79529e-015 -1.84199e-015 -1.83736e-016 
-2.12627e-015 0 -0.15 6.25 -2.17621e-015 4.70977e-016 -3.31578e-015 -2.81719e-015 -9.71807e-017 
0.375 9.20388e-016 -0.15 6.25 -5.10009e-016 2.15048e-015 -2.24314e-015 -2.85131e-015 4.53305e-016 
0.375 -0.15 -0.15 6.25 -3.96095e-017 7.01985e-016 -9.58435e-016 -1.12063e-015 -3.8453e-016 
-2.8401e-015 -0.15 -0.15 6.25 -1.70581e-015 -9.77517e-016 -2.03107e-015 -1.08652e-015 -9.35016e-016 
0.125 -0.0375 -0.0375 6.25 -2.55864e-015 5.81458e-016 -5.49615e-015 -3.5989e-015 2.47713e-016 
0.25 -0.05625 -0.05625 6.25 -1.30899e-015 1.84108e-015 -4.69167e-015 -3.62449e-015 6.60577e-016 
0.25 -0.09375 -0.05625 6.25 -9.56192e-016 7.54713e-016 -3.72814e-015 -2.32648e-015 3.22008e-017 
0.125 -0.1125 -0.0375 6.25 -2.20584e-015 -5.04913e-016 -4.53262e-015 -2.30089e-015 -3.80663e-016 
0.125 -0.0375 -0.1125 6.25 -2.44661e-015 1.78026e-016 -4.17299e-015 -3.0323e-015 -3.15747e-016 
0.25 -0.05625 -0.09375 6.25 -1.19696e-015 1.43765e-015 -3.36851e-015 -3.05788e-015 9.71174e-017 
0.25 -0.09375 -0.09375 6.25 -8.4416e-016 3.51282e-016 -2.40498e-015 -1.75988e-015 -5.31259e-016 
0.125 -0.1125 -0.1125 6.25 -2.09381e-015 -9.08345e-016 -3.20946e-015 -1.73429e-015 -9.44123e-016 
ZONE T="P_lcase_0_deformphase", F=FEPOINT, N=16, E=7, ET=BRICK, D=(FECONNECT)
0 0 0 0 0 0 6.25 -2.32559e-015 1.00889e-015 -5.07999e-015 -3.57266e-015 6.54099e-016 
3.75001e+006 0 0 0.375 0 0 6.25 -6.59385e-016 2.68839e-015 -4.00736e-015 -3.60678e-015 1.20458e-015 
3.75001e+006 -1.49999e+006 5.95317e-009 0.375 -0.15 5.95317e-016 6.25 -1.88985e-016 1.23989e-015 -2.72265e-015 -1.8761e-015 3.66749e-016 
-1.86967e-008 -1.49999e+006 -8.33232e-009 -1.86967e-015 -0.15 -8.33232e-016 6.25 -1.85519e-015 -4.39608e-016 -3.79529e-015 -1.84199e-015 -1.83736e-016 
-2.12627e-008 0 -1.49999e+006 -2.12627e-015 0 -0.15 6.25 -2.17621e-015 4.70977e-016 -3.31578e-015 -2.81719e-015 -9.71807e-017 
3.75001e+006 9.20388e-009 -1.49999e+006 0.375 9.20388e-016 -0.15 6.25 -5.10009e-016 2.15048e-015 -2.24314e-015 -2.85131e-015 4.53305e-016 
3.75001e+006 -1.49999e+006 -1.49999e+006 0.375 -0.15 -0.15 6.25 -3.96095e-017 7.01985e-016 -9.58435e-016 -1.12063e-015 -3.8453e-016 
-2.8401e-008 -1.49999e+006 -1.49999e+006 -2.8401e-015 -0.15 -0.15 6.25 -1.70581e-015 -9.77517e-016 -2.03107e-015 -1.08652e-015 -9.35016e-016 
1.25e+006 -374998 -374998 0.125 -0.0375 -0.0375 6.25 -2.55864e-015 5.81458e-016 -5.49615e-015 -3.5989e-015 2.47713e-016 
2.5e+006 -562497 -562497 0.25 -0.05625 -0.05625 6.25 -1.30899e-015 1.84108e-015 -4.69167e-015 -3.62449e-015 6.60577e-016 
2.5e+006 -937495 -562497 0.25 -0.09375 -0.05625 6.25 -9.56192e-016 7.54713e-016 -3.72814e-015 -2.32648e-015 3.22008e-017 
1.25e+006 -1.12499e+006 -374998 0.125 -0.1125 -0.0375 6.25 -2.20584e-015 -5.04913e-016 -4.53262e-015 -2.30089e-015 -3.80663e-016 
1.25e+006 -374998 -1.12499e+006 0.125 -0.0375 -0.1125 6.25 -2.44661e-015 1.78026e-016 -4.17299e-015 -3.0323e-015 -3.15747e-016 
2.5e+006 -562497 -937495 0.25 -0.05625 -0.09375 6.25 -1.19696e-015 1.43765e-015 -3.36851e-015 -3.05788e-015 9.71174e-017 
2.5e+006 -937495 -937495 0.25 -0.09375 -0.09375 6.25 -8.4416e-016 3.51282e-016 -2.40498e-015 -1.75988e-015 -5.31259e-016 
1.25e+006 -1.12499e+006 -1.12499e+006 0.125 -0.1125 -0.1125 6.25 -2.09381e-015 -9.08345e-016 -3.20946e-015 -1.73429e-015 -9.44123e-016 
